144
Lattice="15.415349658 0.0 0.0 0.0 12.016005204 0.0 -6.055885795 0.0 12.226281044" Properties=species:S:1:pos:R:3:forces:R:3 energy=-567.404752 pbc="T T T"
Cu      11.52491000       2.71697000       3.53948000      -0.52419500       0.59353100      -0.01888800
Cu       0.94130000       9.18527000       2.48932000       0.34434400      -0.01682700      -0.03802500
Cu      -2.17737000       8.90566000       8.67171000      -0.08011300      -0.46038400      -0.09748500
Cu       8.60937000       2.99411000       9.87382000       0.24248300       0.16637000      -0.09611400
Cu       5.78704000       0.81660000       8.10398000      -0.65086900       0.03709000       0.13842000
Cu       1.13645000       6.89390000       9.81986000      -0.92206800      -0.41580200       0.00408800
Cu       3.98661000      11.22749000       4.05170000      -0.16999300       0.04817300      -0.09444500
Cu       8.48776000       5.35715000       2.31898000      -0.23577800      -0.42578200      -0.27304500
Cu       8.46457000       1.29601000       1.87017000      -0.17669200       0.11559700       0.37076900
Cu       4.03103000       6.96064000       3.88549000       0.13813300       0.33666600       0.14152800
Cu       0.94448000      10.87127000      10.21508000       0.48869500       0.33643400       0.18205000
Cu       5.52896000       4.74049000       8.15135000      -0.55596600      -0.10408000      -0.20262300
Cu       5.25495000       2.85580000       0.88760000      -0.23678000       0.11132300       0.05855600
Cu       7.20832000       9.00509000       5.25253000      -0.09305000      -0.06766300       0.11201800
Cu       4.02963000       9.12378000      11.29065000       0.21445500      -0.39716100      -0.29744000
Cu       2.00869000       2.95149000       6.95641000       0.24222800       0.08618600       0.25642400
Cu      -3.59727000       1.31298000      11.56779000      -0.23464900       0.05181100      -0.01123000
Cu      10.17489000       7.11535000       7.19747000      -0.20562100      -0.37398600      -0.13379200
Cu      13.14051000      10.69193000       0.61472000      -0.22751100       0.01522700      -0.01320400
Cu      -0.15851000       4.93004000       5.03782000      -0.40737900      -0.18836000      -0.07919700
Cu      -1.03043000       0.75778000       5.49457000      -0.61405700       0.27667000      -0.42190500
Cu      13.29870000       6.86184000       0.95026000       0.17325300      -0.29064600       0.31958600
Cu       9.90736000      11.28706000       7.03112000       0.52850400      -0.03463000       0.16479900
Cu      -4.08827000       5.25818000      11.63154000       0.50729400      -0.05085900       0.10801400
Cu      14.22568000       1.81408000       0.08656000       0.57149900       0.02605500      -0.03886300
Cu      -1.97034000       7.15598000       6.03887000      -0.44998000       0.31438800       0.30599800
Cu      -5.20546000      10.47006000      12.19513000       0.39551900      -0.01324200       0.78330000
Cu      11.23565000       4.47173000       5.73470000      -0.17790300      -0.21602200       0.21881000
Cu      11.50533000       1.75385000       6.16054000      -0.08207100       0.04007500      -0.07810400
Cu       1.05145000       7.68106000       0.13325000       0.67899900       0.03125400      -0.14390400
Cu      -1.99506000      10.44925000       6.34486000       0.24046100       0.04060100       0.14015700
Cu      14.46480000       4.42495000       0.30428000      -0.39748700      -0.00648600      -0.22757900
Cu       9.50706000       3.23697000       7.16092000       0.42087300      -0.22847000      -0.13743300
Cu       3.09422000       9.25746000       0.87162000       0.08312700      -0.01320500      -0.00890700
Cu       0.08332000       8.97416000       7.15956000       0.00436300      -0.11055400      -0.10225000
Cu      12.23272000       2.72008000       1.12254000      -0.24925700       0.71072200      -0.10828000
Cu       1.15816000       2.14568000      11.54656000      -0.41121300      -0.68445000       0.38420700
Cu       5.27209000       7.82267000       6.86516000       0.12532800      -0.25684100      -0.00375700
Cu       8.17277000      10.18657000       0.27762000      -0.36844200      -0.18172800       0.62125800
Cu       3.91864000       4.11751000       5.06655000      -0.43230500       0.48367500       0.53889600
Cu       4.00310000       1.50710000       5.38681000      -0.23721000      -0.11349300      -0.03355800
Cu       8.72038000       7.58568000       0.75111000      -0.04866700       0.00466700       0.55775500
Cu       5.69466000      10.30930000       6.99982000       0.08238100       0.29117900      -0.20571800
Cu       0.73141000       4.83540000      11.36935000      -0.06046400      -0.42870100      -0.02990800
Cu      -1.02582000       2.77460000      10.47989000      -0.12936200       0.07252000      -0.18421800
Cu       7.80433000       8.30190000       7.77366000      -0.61573900       0.18719100      -0.34268300
Cu      10.52153000       9.29163000       1.56932000      -0.40442600       0.51127900       0.81725900
Cu       1.76042000       2.96828000       4.38708000       0.09355300       0.13682600      -0.19164000
Cu       8.37753000       0.81962000       8.31150000       0.13160300       0.12143300       0.41858400
Cu      -2.20379000       6.60031000      10.26349000       0.09219400      -0.11372700      -1.10292400
Cu       0.72604000      11.56260000       3.71135000       0.58118200       0.17085300       1.40529800
Cu      11.59545000       5.02775000       2.26956000      -0.09017700       0.08808700       0.45303900
Cu      11.37961000       0.26551000       1.88897000      -0.70641100       0.09923100       0.49307600
Cu       1.44878000       6.95846000       3.91255000      -0.46239800       0.33831600       0.31022300
Cu      -1.69988000      11.16574000      10.04945000      -0.38026400      -0.02304800       0.21846600
Cu       8.06333000       4.95413000       8.13816000       0.02621900       0.28659400      -0.45058700
Cu      -4.36341000       1.98604000       9.11700000      -0.49822700       0.09295700       0.16891900
Cu      10.68527000       9.24350000       8.40739000      -0.57033100      -0.42642200       0.68335100
Cu      13.82938000       9.09178000       2.35866000      -0.23055900      -0.18515700       0.61358000
Cu      13.96975000       3.83629000       2.66623000      -0.51897100       0.10280300       0.91347500
Cu       6.06301000       1.07695000       3.45090000      -0.02473000      -0.11931900      -0.31754400
Cu       6.31390000       6.99170000       2.63117000       0.08496500      -0.01374700      -0.35141100
Cu       3.43713000      11.21558000       8.61998000       0.02726000      -0.46336200      -0.13004400
Cu       2.71760000       4.59107000       9.25548000       0.00439700       0.37774000      -0.17519600
Cu       0.44256000       0.79397000       7.51533000       0.39284300      -0.09836100       0.14348300
Cu       5.25134000       6.41678000      10.66453000       0.47527300      -0.13836500      -0.07900400
Cu       8.24962000      11.81450000       4.48984000       0.21513300      -0.06421100      -0.35088600
Cu       4.18342000       5.45581000       1.75203000      -0.08030900      -0.01613300      -0.21949600
Cu       4.01003000       0.66675000       1.73762000       0.02888100      -0.32357800       0.03363400
Cu       8.34839000       6.92699000       4.24743000      -0.31025800       0.03697000       0.39713700
Cu       5.48094000      11.18523000      10.58182000       0.51430400       0.18825200      -0.63083300
Cu       1.07131000       5.38871000       7.37534000       0.32027900       0.18818200       0.41640500
Cu       4.21301000       2.62568000       9.10014000      -0.19723000      -0.37053900      -0.07609800
Cu       2.86651000       8.26904000       9.12445000       0.81319500       0.82160900      -0.59847100
Cu       5.34637000       9.52143000       2.76224000       0.18337100      -0.20520500       0.07316400
Cu       6.83808000       3.46300000       3.01720000       0.09666300      -0.10775900      -0.26489200
Cu      -1.22919000       1.20692000       2.84928000       0.11191000       0.17522600      -0.28878100
Cu      12.57696000       7.12242000       3.51550000      -0.08030000       0.48216800       0.35586200
Cu       9.16529000      10.95579000      10.07757000      -0.01503400       0.48574900      -0.53445200
Cu      10.74902000       4.75363000       8.87895000       0.53852600      -0.14440500      -0.51693700
Cu       4.19619000       1.36541000      11.49226000      -0.38078500      -0.03045300      -0.00419800
Cu       2.45878000       7.37775000       6.65467000       0.06607400      -0.07854600       0.08861500
Cu       5.31896000      10.66606000       0.43882000       0.38571000      -0.00110200      -0.03141600
Cu       6.91402000       4.80767000       5.46184000       0.12593600       0.24544400      -0.03083400
Cu       7.15034000       2.69321000       6.67590000      -0.23870500      -0.44877300       0.25905000
Cu      -0.81738000       8.39491000      11.50197000      -0.43613300      -0.34404300      -0.29660100
Cu       2.10487000       9.67028000       5.38794000      -0.07737100       0.12570400      -0.22851700
Cu       9.68527000       3.42373000       0.94518000       0.17520700      -0.06841700      -0.08878900
Cu       2.62334000       2.67217000       1.88371000      -0.04829600       0.19948600      -0.37029100
Cu      10.41720000       8.36449000       4.55256000       0.31594800       0.34830000       0.09177600
Cu       7.21584000       9.43029000      10.57027000       0.12679000      -0.35296300       0.04330400
Cu      -0.52072000       3.61443000       7.80169000      -0.36869400      -0.49791900       0.25731100
Cu      -2.05660000       1.09117000       8.12167000      -0.05011300      -0.33712800       0.26228200
Cu       8.62319000       6.99659000       9.55662000      -0.01262100       0.03032600       0.52579300
Cu      11.01715000      10.84050000       3.79143000       0.39833100      -0.52581600       0.30438200
Cu       0.75801000       4.98978000       2.17022000      -0.01039800      -0.00240600       0.09609100
S        9.66279000       1.04561000      10.73808000       0.10741600       0.02423500      -0.89127900
S       -3.16184000       6.79866000       8.04560000       0.06653800       0.13956600       0.12050900
S       -0.30404000      11.04333000       1.97659000      -0.95367200      -0.46453300      -1.79681100
S       12.83426000       5.06839000       4.33902000       0.39329600      -0.32647000      -0.51834400
S       12.39515000       0.83117000       4.16637000      -0.06308000      -0.61194600       0.50682100
S       -0.04295000       7.13059000       1.93130000      -0.64378800      -0.07763600       0.31522800
S       -3.25380000      10.86483000       8.16358000       0.30200500       0.89819000      -0.19378600
S        9.41762000       5.14521000      10.58660000      -0.64439400      -0.34089000      -0.05000700
S        9.00831000       1.11279000       6.18474000       0.51114800       0.55027600      -0.45419700
S        3.34802000       6.99932000       0.09625000       0.10891800       0.28472400       0.51415200
S        0.30069000      11.03010000       5.97943000       0.21686600      -0.24746800       0.30897800
S       12.12524000       5.04060000       0.14613000       0.50122900      -0.42642300      -0.42841500
S        6.18973000       0.76543000      12.21862000       0.71168000      -0.22217400      -0.53456000
S        0.27700000       6.96838000       5.89276000       0.30101200       0.40409900       0.02044800
S       -2.83579000      11.33619000      12.07566000      -0.36645400      -1.01369900       0.18078000
S        9.11071000       5.30752000       5.88412000       0.52138200      -0.16131600       1.25716100
S        3.29671000       1.11468000       7.49721000       0.42378300       0.46988300       0.10979400
S        3.12703000       6.91177000      10.90503000      -0.33067100       0.23619700      -0.22307300
S        6.12068000      10.97358000       4.59954000       0.15788300      -0.56347400       0.37741900
S        6.40437000       4.95096000       1.33698000      -0.27109700       0.02602700      -0.06219200
S        6.26122000       0.72292000       1.03040000       0.47981100       0.55626900       0.37494000
S        6.11755000       6.85613000       4.84907000      -0.16374300       0.50115000       0.58606100
S        3.26768000      11.19922000      10.85073000      -0.97710200       0.34043400       0.16079500
S        3.52987000       5.32717000       7.24188000      -0.66028100      -0.46676100      -0.53719300
S       -0.16538000       0.79379000       9.67493000       0.08262100       0.73807600      -0.30564100
S        6.38897000       6.71555000       8.70905000       0.71456700       0.85892700      -0.00689600
S        9.21963000      11.13097000       2.41939000       0.57852000       0.12848200       0.16071000
S        2.69797000       5.15168000       3.47535000       0.44429600      -0.86887000      -0.36707900
S        2.57642000       0.90122000       3.58188000       0.25862300       0.39106700      -0.41365700
S        9.93715000       6.97306000       2.74299000       0.64190700       0.68189900      -0.62114200
S        6.98678000      11.02130000       8.74051000      -0.28345600      -0.45518200       0.41802300
S       -0.27493000       5.08709000       9.39966000      -0.36447800       0.47510300       0.47078700
S        6.51424000       2.93256000       8.87090000       0.24861100      -0.53282200       0.26137900
S       -0.07028000       9.08780000       9.47600000       0.33423800      -1.00161400      -0.35357100
S        3.02649000       8.97677000       3.38093000       0.25797100       0.37885700      -0.12848400
S        9.22001000       3.23692000       3.10270000       0.39413500      -0.56114400      -0.53067200
S        5.74428000       2.95266000       4.87537000       0.50418500      -0.76751800       0.09813200
S        6.59397000       8.58770000       1.02620000      -0.05230600       0.88950800       0.13424400
S        3.55928000       9.31404000       7.15633000       0.00754700       0.23650000       0.50932000
S        2.96180000       3.18689000      11.02470000       0.38849900       0.33535900      -0.15323500
S        0.00319000       2.81986000       5.84202000       0.19765100      -0.41001700      -0.47408200
S       12.07390000       8.62516000       0.18008000       0.95561900       0.47819700      -0.37175900
S        9.29009000       9.21675000       6.39687000      -0.05334300      -0.43891100      -0.53807200
S       -2.79943000       3.30466000      11.86546000       0.39734800       0.49047600       0.57231700
S        0.22927000       2.73487000       1.72492000      -0.31137700       0.04131200      -0.09318200
S       12.80848000       9.20714000       4.54446000      -1.07822600      -0.48291600      -0.75449000
S        9.57560000       8.83412000      10.64965000      -0.18022300       0.20700700      -0.96580400
S       -3.02133000       3.13287000       7.77891000      -0.43173900       0.22930400      -0.18816700
144
Lattice="15.500587762 0.0 0.0 0.0 12.082446869 0.0 -6.089371395 0.0 12.293885415" Properties=species:S:1:pos:R:3:forces:R:3 energy=-565.024216 pbc="T T T"
Cu      11.44261000       3.17883000       3.39914000      -0.11207600       0.06241900       0.23549700
Cu       0.73813000       9.22012000       2.34689000       0.40767100      -0.76255900       0.87917000
Cu      -2.11543000       9.14403000       8.20163000      -0.73654200      -0.17050400      -0.13500000
Cu       8.78257000       2.91894000       9.94865000       0.07466300       0.11198700      -0.08726000
Cu       5.44081000       0.91688000       8.74315000      -0.18028900       0.64588700      -0.36614800
Cu       0.77289000       7.30984000       9.98548000      -0.27740500      -0.88133000       0.33508000
Cu       3.85512000      10.95899000       3.91346000       0.26042300       0.32078000      -0.19305600
Cu       8.53235000       5.11107000       2.48624000      -0.05801400      -0.08928000      -0.05017600
Cu       8.43690000       0.63670000       1.96905000       0.09939100       0.92799200       0.17965500
Cu       3.99811000       6.95598000       3.90500000      -0.35270100      -0.01154100       0.05052700
Cu       1.18262000      10.61798000      10.28166000      -1.09449500      -0.34040100      -0.72624500
Cu       5.10052000       4.88890000       8.30125000       0.01815800       0.14938200      -0.18702600
Cu       5.10993000       2.61008000       0.77614000      -0.27524700       0.26031800      -0.41735600
Cu       7.25024000       8.89725000       5.25590000       0.63965100       0.02224500       0.24796300
Cu       4.08558000       8.88878000      11.36107000       0.52427300       0.77499000       0.80127200
Cu       2.21835000       3.02757000       6.84923000      -0.16908100       0.27575000       0.10514800
Cu      -3.87773000       0.67325000      11.41533000       0.25177400       0.28013400       0.17885200
Cu       9.32650000       7.13585000       7.16763000       0.54831300      -0.05431100      -0.55751900
Cu      12.78822000      11.27114000       0.55769000       0.29432500      -0.38491100      -0.00947900
Cu      -0.88291000       4.97952000       5.49548000       0.56437700       0.28269400      -0.11554700
Cu      -0.94004000       0.86817000       5.17878000       0.53179300      -0.10515300       0.48034100
Cu      13.50445000       7.21972000       0.82994000       0.20276800      -0.21671900       0.21945200
Cu      10.42550000      11.49942000       6.83806000       0.64505200      -0.31143700       0.29767800
Cu      -4.02735000       4.98160000      11.70489000      -0.04603600      -0.14475500      -0.35028900
Cu       8.20421000       1.34114000      12.16595000      -0.13641600       0.39875600       0.12636500
Cu      -1.77903000       7.86620000       5.88147000       0.10584600      -0.23309600       0.55442100
Cu       1.66504000      10.96535000       0.86414000      -0.18478900       0.08998400      -0.09328300
Cu      11.43269000       4.94510000       6.15516000       0.18935300      -0.28719000       0.17942400
Cu      11.54652000       1.99240000       6.03084000      -0.25675700      -0.06935400       0.08143100
Cu       1.32088000       8.42018000       0.03724000       0.53927600      -0.84873000       0.28059400
Cu      -2.06691000      10.78843000       6.10765000      -0.10862300      -0.30997400       0.14605000
Cu      14.26465000       4.40857000       0.36693000       0.41259200       0.25100800      -0.10589500
Cu       9.16437000       3.15084000       4.96085000       0.46776200       0.00906000      -0.10648700
Cu       3.36199000       9.06496000       1.37785000      -0.10711800      -0.15795300       0.60753100
Cu       1.62801000      10.16897000       7.79782000      -0.52619800      -0.05920000      -0.42297400
Cu       6.47262000       3.27713000      11.35497000      -0.20218800      -0.32601900      -0.29501000
Cu       1.23819000       2.15754000      10.64122000      -0.62405000      -0.67201100      -0.40065700
Cu       5.30465000       8.56498000       8.89314000      -0.04198700       0.09700000       0.04296900
Cu       8.54982000      10.41819000       1.05587000      -0.56269200      -0.45717100      -0.04313200
Cu       4.52926000       4.23428000       4.65698000      -0.65945800       0.07238300      -0.10689700
Cu       3.81504000       1.63345000       5.18581000       0.67934800       0.15517900       0.36208200
Cu       8.29981000       7.49568000       1.36371000       0.29284500       0.32209600      -0.15679600
Cu       5.85024000      10.37924000       6.97358000      -0.30844500       0.09061200      -0.04016000
Cu       0.61641000       4.73112000      11.16183000       0.16767800      -0.39159600       0.13406800
Cu      -1.09406000       2.83181000      10.15039000      -0.28959900       0.19147100       0.14492400
Cu       7.53328000       8.64255000       7.81010000      -0.41048800      -0.37378500       0.68886100
Cu      10.55700000       9.25204000       1.89577000       0.00897100      -0.10840900       0.15962900
Cu       1.92211000       3.05547000       4.24761000       0.07554600       0.39632700      -0.23516300
Cu       8.65383000       0.55413000       8.23760000       0.00545200       0.00578400       0.42436000
Cu      -2.55086000       6.53265000      10.09238000      -0.26271900       0.20245600      -0.93279200
Cu       0.90508000      11.74169000       3.78313000      -0.15043100      -0.45542800       0.14023600
Cu      11.78802000       5.54212000       2.32963000      -0.12461700       0.25791600      -0.40995000
Cu      11.61932000       0.94869000       2.18215000      -0.35302300      -0.22748600      -0.56435300
Cu       1.05562000       6.53028000       3.96023000       0.16891300      -0.08487600       0.01618700
Cu      -1.76094000      11.00618000       9.97517000       0.09849700       0.07431900       0.55508600
Cu       7.69498000       4.65712000       7.98759000      -0.44599100      -0.27184400       0.80915700
Cu      -4.24716000       2.00227000       9.25078000      -0.53414000      -0.08312600       0.31075600
Cu      10.82742000       8.28566000       8.92735000       0.28948900      -0.19871500      -0.06357100
Cu      13.45709000       9.48564000       2.56436000      -0.09430400      -0.25193400       0.16761600
Cu      -1.13919000       3.60534000       3.37464000      -0.08147000      -0.21691000      -0.26800800
Cu       5.81252000       0.87416000       3.69546000       0.23968300      -0.38972700      -0.44142100
Cu       6.27049000       6.44284000       2.73448000       0.59329700      -0.26745800      -0.20927800
Cu       3.31810000      11.57108000       8.96326000      -0.09487100       0.02546600      -0.06330900
Cu       2.93597000       5.49182000       9.37236000      -0.35256500       0.16664900       0.40267100
Cu       1.19319000       0.86485000       7.88775000       0.11239500      -0.28021300       0.12036600
Cu       5.26044000       6.78722000      10.70638000       0.20020100      -0.55784800      -0.02456200
Cu       8.36755000      11.16562000       4.67475000       0.09928100       0.19500800      -0.02250100
Cu       4.26368000       5.66242000       1.58437000      -0.71369500      -0.34203700      -0.25591300
Cu       3.94831000       0.44729000       1.60572000      -0.37347100       0.10305200       0.10031900
Cu       8.51632000       6.74447000       4.54446000      -0.28702900      -0.07047700       0.05499100
Cu       5.26048000      11.15558000      10.54689000       0.01028800       0.01754200       0.17457400
Cu       0.80269000       5.77855000       7.91179000       0.15129700      -0.29989600      -0.39409500
Cu       3.54421000       2.88108000       9.06926000       0.13478700      -0.40597100      -0.27872100
Cu       2.79386000       8.35830000       9.40614000       0.42186000       0.20844300      -0.66263100
Cu       5.51876000       8.95312000       3.28504000      -0.51648600       0.37412100       0.94412200
Cu       6.47196000       3.62579000       3.03481000       0.03473500      -0.77533900       0.53767700
Cu      14.15939000       0.56032000       2.61849000       0.35747600       0.15542500      -0.25190500
Cu      -1.33103000       6.95771000       3.30479000      -0.44122800      -0.03463200       0.20124900
Cu      10.69010000      10.74585000       9.61767000       0.38310900       0.88736600      -0.52403600
Cu      -4.26198000       4.65909000       9.05469000      -0.35120800       0.01527700       0.24367800
Cu       3.51669000       1.28051000      11.64637000       0.13087300      -0.30235200      -0.21667100
Cu       2.38974000       7.46529000       6.99156000       0.23095300       0.04189600      -0.04135900
Cu       5.56353000      10.80506000       0.96796000       0.62619400      -0.00638500       0.11408800
Cu       7.22734000       4.74326000       5.10303000      -0.29175400       0.20992400       0.30017500
Cu       7.57996000       2.33894000       6.91905000      -0.50556900       0.29271700       0.18154700
Cu      -0.98774000       8.57345000      11.79519000       0.41543500      -0.07925000      -0.34533700
Cu       0.87942000       9.02397000       5.07166000       0.19395300       0.47896300      -0.29121800
Cu      10.35506000       3.85100000       0.71450000      -0.00524400      -0.09202600       0.34404600
Cu       2.08530000       2.27155000       1.67193000       0.29726900       0.05974500      -0.60752000
Cu      10.11475000       8.59559000       4.45899000       0.06539800       0.29085700       0.62496600
Cu       7.31810000       9.47289000      10.77761000       0.09505700       0.22366400      -0.70072000
Cu      -0.61214000       3.59627000       7.63285000      -0.06651800       0.18415500       0.47406200
Cu      -1.78829000       1.25111000       7.75054000       0.00494200      -0.25849400       0.39279200
Cu       8.71311000       7.23083000       9.84811000      -0.37331400      -0.09234900      -0.14480600
Cu      11.63479000      11.13932000       4.32592000       0.19339800      -0.05452500      -0.14059600
Cu       0.85282000       4.69732000       2.08289000      -0.00665900      -0.13789400      -0.26075600
S        9.50410000       0.76802000      10.45161000       0.64087500       0.26674800      -0.85894500
S       -3.15994000       7.08941000       7.80010000      -0.36560400       0.00354100       0.41702200
S       -0.48097000      10.88463000       1.58416000       0.13680500       0.50921300       0.13793800
S       12.70994000       4.97717000       4.24055000       0.20132900       0.05986800       0.26607400
S       12.64729000       1.13865000       4.14005000      -0.87552200       0.23273000       0.57409400
S        0.25057000       6.85877000       1.67778000      -0.66222500       0.55829600      -0.25549500
S       -3.09982000      11.31509000       8.18143000      -0.48382700      -0.07686300      -0.97635500
S        9.35040000       5.09779000      10.39989000       1.07815000      -0.37942900       0.37125700
S        9.14018000       0.99753000       5.95036000      -0.05140500       0.22203500       0.43492500
S       -2.61744000       6.98445000      12.21184000      -0.81908600       0.38418900       0.58590500
S        0.20496000      10.98551000       5.93173000       0.03085000       0.40186300       0.02516400
S       12.12276000       5.27652000       0.11092000       0.09945800       0.01668600      -0.10034100
S        5.91870000       1.14343000      12.23971000      -0.63935600       0.13172100       0.05261100
S        0.30795000       7.11723000       6.01174000      -0.25127700      -1.21399500       0.16465000
S       -2.47746000      10.83921000      12.14531000      -0.57931500       0.57414700      -0.10930600
S        9.17580000       4.94582000       6.50602000       0.49265800       0.56452400      -1.07949500
S        3.38301000       1.05885000       7.32064000       0.10419500       0.50151700       0.65879400
S        2.99992000       6.92326000      11.14816000      -0.69077600       0.02821300       0.33701300
S        6.06594000      10.81397000       4.78901000      -0.27760800       0.37067500      -0.16961300
S        6.25364000       4.66069000       1.20063000       0.12884100       0.87229500      -0.98071800
S        6.34106000       0.84140000       1.41468000      -0.40343300      -0.17535600      -0.04157500
S        6.12576000       7.01068000       4.84685000       0.04627800      -0.53562600       0.77060600
S        2.99879000      11.05220000      11.20888000       1.27672200       0.65867800       0.85927400
S        3.14585000       5.11138000       7.20061000      -0.09276600       0.26489200      -0.30670000
S       -0.27624000       0.74540000       9.54612000       0.32345000       0.59375800       0.30229100
S        6.57534000       6.65908000       8.84863000       0.21581900       0.97007700      -0.00614300
S        9.75993000      11.26999000       2.88786000       0.38864800      -0.81092000      -0.27967800
S        2.77744000       4.99138000       3.30057000       0.70189400       0.41721800       0.44895500
S        2.70076000       0.96030000       3.46247000      -0.45481400      -0.53971300      -0.69974700
S        9.94109000       6.96658000       2.80803000       0.11300500       0.19200000      -0.21185300
S        6.71358000      11.19431000       8.83920000       0.67442500      -0.29460300       0.29318100
S       -0.67627000       5.35741000       9.47180000       0.31493300      -0.94943400       0.24863300
S        6.27267000       3.14164000       9.01196000       0.33546200      -0.92026100      -0.02153100
S       -0.31676000       9.15485000       9.48235000       0.61747600       0.14930000       0.39930900
S        2.82395000       8.97047000       3.80219000       0.00387600      -0.13961000      -0.93101000
S        9.28327000       2.94096000       2.66345000       0.50036300      -0.06427500      -0.27855500
S        6.03152000       2.65883000       5.04385000      -0.04918700       0.08985300       0.43117900
S        6.47359000       8.80156000       1.41613000       1.07328800      -0.12939000      -1.67333400
S        3.68774000       9.27382000       7.47157000      -0.33746600      -0.13493400       0.02515000
S        2.87118000       3.41602000      11.13022000       0.34352200       0.43198500       0.37424600
S        0.20524000       2.79731000       5.69204000      -0.27423100       0.46421300       0.16564400
S       12.25117000       9.05936000       0.32099000      -0.38077000      -0.30795500       0.43523800